 argument  1 = input.nw



============================== echo of input deck ==============================
echo

scratch_dir /home/ccardot3/nwchem/nwxpl/ScriptedCalculations/tests/Test/working/scratch
permanent_dir

start 14778

title "14778"

memory 7500 mb noverify

geometry units angstrom noautosym nocenter noautoz
Ca 15.96880 -11.12500 0.00000
O 17.46880 -11.12500 0.00000
end

basis "ao basis" spherical print
   * library 6-31G*
end

charge 0

dft
  xc b3lyp
  mult 1
  odft
  maxiter 500
  print "final vectors analysis"
  direct
  mulliken
end

driver
  maxiter 500
  xyz xyzfiles/14778
end

task dft optimize


================================================================================


                                         
                                         


             Northwest Computational Chemistry Package (NWChem) 7.2.0
             --------------------------------------------------------


                    Environmental Molecular Sciences Laboratory
                       Pacific Northwest National Laboratory
                                Richland, WA 99352

                              Copyright (c) 1994-2022
                       Pacific Northwest National Laboratory
                            Battelle Memorial Institute

             NWChem is an open-source computational chemistry package
                        distributed under the terms of the
                      Educational Community License (ECL) 2.0
             A copy of the license is included with this distribution
                              in the LICENSE.TXT file

                                  ACKNOWLEDGMENT
                                  --------------

            This software and its documentation were developed at the
            EMSL at Pacific Northwest National Laboratory, a multiprogram
            national laboratory, operated for the U.S. Department of Energy
            by Battelle under Contract Number DE-AC05-76RL01830. Support
            for this work was provided by the Department of Energy Office
            of Biological and Environmental Research, Office of Basic
            Energy Sciences, and the Office of Advanced Scientific Computing.


           Job information
           ---------------

    hostname        = macchiato.phys.washington.edu
    program         = nwchem
    date            = Tue Apr 25 12:40:56 2023

    compiled        = Thu_Mar_23_08:55:53_2023
    source          = /home/conda/feedstock_root/build_artifacts/nwchem_1679552606056/work
    nwchem branch   = 7.2.0
    nwchem revision = be5fba2
    ga revision     = 5.8.0
    use scalapack   = T
    input           = input.nw
    prefix          = 14778.
    data base       = ./14778.db
    status          = startup
    nproc           =        1
    time left       =     -1s



           Memory information
           ------------------

    heap     =  245759994 doubles =   1875.0 Mbytes
    stack    =  245759999 doubles =   1875.0 Mbytes
    global   =  491520000 doubles =   3750.0 Mbytes (distinct from heap & stack)
    total    =  983039993 doubles =   7500.0 Mbytes
    verify   = no 
    hardfail = no 


           Directory information
           ---------------------

  0 permanent = .
  0 scratch   = /home/ccardot3/nwchem/nwxpl/ScriptedCalculations/tests/Test/working/scratch




                                NWChem Input Module
                                -------------------


                                       14778
                                       -----

 Scaling coordinates for geometry "geometry" by  1.889725989
 (inverse scale =  0.529177249)



                             Geometry "geometry" -> ""
                             -------------------------

 Output coordinates in angstroms (scale by  1.889725989 to convert to a.u.)

  No.       Tag          Charge          X              Y              Z
 ---- ---------------- ---------- -------------- -------------- --------------
    1 Ca                  20.0000    15.96880000   -11.12500000     0.00000000
    2 O                    8.0000    17.46880000   -11.12500000     0.00000000

      Atomic Mass 
      ----------- 

      Ca                39.962590
      O                 15.994910


 Effective nuclear repulsion energy (a.u.)      56.4455732266

            Nuclear Dipole moment (a.u.) 
            ----------------------------
        X                 Y               Z
 ---------------- ---------------- ----------------
   867.6230901232  -588.6496454427     0.0000000000


            XYZ format geometry
            -------------------
     2
 geometry
 Ca                   15.96880000   -11.12500000     0.00000000
 O                    17.46880000   -11.12500000     0.00000000

 ==============================================================================
                                internuclear distances
 ------------------------------------------------------------------------------
       center one      |      center two      | atomic units |  angstroms
 ------------------------------------------------------------------------------
    2 O                |   1 Ca               |     2.83459  |     1.50000
 ------------------------------------------------------------------------------
                         number of included internuclear distances:          1
 ==============================================================================



  library name resolved from: environment
  library file name is: </home/ccardot3/anaconda3/envs/Science/share/nwchem/libraries/>
  


 Summary of "ao basis" -> "" (spherical)
 ------------------------------------------------------------------------------
       Tag                 Description            Shells   Functions and Types
 ---------------- ------------------------------  ------  ---------------------
 *                           6-31G*                   on all atoms 




                           NWChem Geometry Optimization
                           ----------------------------




                                       14778


 maximum gradient threshold         (gmax) =   0.000450
 rms gradient threshold             (grms) =   0.000300
 maximum cartesian step threshold   (xmax) =   0.001800
 rms cartesian step threshold       (xrms) =   0.001200
 fixed trust radius                (trust) =   0.300000
 maximum step size to saddle      (sadstp) =   0.100000
 energy precision                  (eprec) =   5.0D-06
 maximum number of steps          (nptopt) =  500
 initial hessian option           (inhess) =    0
 line search option               (linopt) =    1
 hessian update option            (modupd) =    1
 saddle point option              (modsad) =    0
 initial eigen-mode to follow     (moddir) =    0
 initial variable to follow       (vardir) =    0
 follow first negative mode     (firstneg) =    T
 apply conjugacy                    (opcg) =    F
 source of zmatrix                         =           


          -------------------
          Energy Minimization
          -------------------


 Using diagonal initial Hessian 

          --------
          Step   0
          --------


                         Geometry "geometry" -> "geometry"
                         ---------------------------------

 Output coordinates in angstroms (scale by  1.889725989 to convert to a.u.)

  No.       Tag          Charge          X              Y              Z
 ---- ---------------- ---------- -------------- -------------- --------------
    1 Ca                  20.0000    15.96880000   -11.12500000     0.00000000
    2 O                    8.0000    17.46880000   -11.12500000     0.00000000

      Atomic Mass 
      ----------- 

      Ca                39.962590
      O                 15.994910


 Effective nuclear repulsion energy (a.u.)      56.4455732266

            Nuclear Dipole moment (a.u.) 
            ----------------------------
        X                 Y               Z
 ---------------- ---------------- ----------------
   867.6230901232  -588.6496454427     0.0000000000


                                 NWChem DFT Module
                                 -----------------


                                       14778


                      Basis "ao basis" -> "ao basis" (spherical)
                      -----
  Ca (Calcium)
  ------------
            Exponent  Coefficients 
       -------------- ---------------------------------------------------------
  1 S  3.52648600E+04  0.001814
  1 S  5.29550300E+03  0.013885
  1 S  1.20602000E+03  0.068362
  1 S  3.39683900E+02  0.235619
  1 S  1.08626400E+02  0.482064
  1 S  3.69210300E+01  0.342982

  2 S  7.06309600E+02  0.002448
  2 S  1.67818700E+02  0.032415
  2 S  5.38255800E+01  0.122622
  2 S  2.00163800E+01 -0.043170
  2 S  7.97027900E+00 -0.612700
  2 S  3.21205900E+00 -0.448754

  3 P  7.06309600E+02  0.004020
  3 P  1.67818700E+02  0.031006
  3 P  5.38255800E+01  0.133728
  3 P  2.00163800E+01  0.336798
  3 P  7.97027900E+00  0.463128
  3 P  3.21205900E+00  0.225753

  4 S  1.41951800E+01  0.010845
  4 S  4.88082800E+00  0.208833
  4 S  2.16039000E+00  0.031503
  4 S  9.87899000E-01 -0.552652
  4 S  4.49517000E-01 -0.543800
  4 S  1.87387000E-01 -0.066693

  5 P  1.41951800E+01 -0.012896
  5 P  4.88082800E+00 -0.010252
  5 P  2.16039000E+00  0.195978
  5 P  9.87899000E-01  0.435793
  5 P  4.49517000E-01  0.399645
  5 P  1.87387000E-01  0.097136

  6 S  1.03227100E+00 -0.044397
  6 S  3.81171000E-01 -0.328456
  6 S  6.51310000E-02  1.163010

  7 P  1.03227100E+00 -0.429862
  7 P  3.81171000E-01  0.006936
  7 P  6.51310000E-02  0.970593

  8 S  2.60100000E-02  1.000000

  9 P  2.60100000E-02  1.000000

 10 D  2.00000000E-01  1.000000

  O (Oxygen)
  ----------
            Exponent  Coefficients 
       -------------- ---------------------------------------------------------
  1 S  5.48467170E+03  0.001831
  1 S  8.25234950E+02  0.013950
  1 S  1.88046960E+02  0.068445
  1 S  5.29645000E+01  0.232714
  1 S  1.68975700E+01  0.470193
  1 S  5.79963530E+00  0.358521

  2 S  1.55396160E+01 -0.110778
  2 S  3.59993360E+00 -0.148026
  2 S  1.01376180E+00  1.130767

  3 P  1.55396160E+01  0.070874
  3 P  3.59993360E+00  0.339753
  3 P  1.01376180E+00  0.727159

  4 S  2.70005800E-01  1.000000

  5 P  2.70005800E-01  1.000000

  6 D  8.00000000E-01  1.000000



 Summary of "ao basis" -> "ao basis" (spherical)
 ------------------------------------------------------------------------------
       Tag                 Description            Shells   Functions and Types
 ---------------- ------------------------------  ------  ---------------------
 Ca                          6-31G*                 10       22   5s4p1d
 O                           6-31G*                  6       14   3s2p1d




 Summary of "ao basis" -> "ao basis" (spherical)
 ------------------------------------------------------------------------------
       Tag                 Description            Shells   Functions and Types
 ---------------- ------------------------------  ------  ---------------------
 Ca                          6-31G*                 10       22   5s4p1d
 O                           6-31G*                  6       14   3s2p1d


  Caching 1-el integrals 

            General Information
            -------------------
          SCF calculation type: DFT
          Wavefunction type:  spin polarized.
          No. of atoms     :     2
          No. of electrons :    28
           Alpha electrons :    14
            Beta electrons :    14
          Charge           :     0
          Spin multiplicity:     1
          Use of symmetry is: off; symmetry adaption is: off
          Maximum number of iterations: 500
          This is a Direct SCF calculation.
          AO basis - number of functions:    36
                     number of shells:    16
          Convergence on energy requested:  1.00D-06
          Convergence on density requested:  1.00D-05
          Convergence on gradient requested:  5.00D-04

              XC Information
              --------------
                         B3LYP Method XC Potential
                     Hartree-Fock (Exact) Exchange  0.200          
                        Slater Exchange Functional  0.800 local    
                    Becke 1988 Exchange Functional  0.720 non-local
              Lee-Yang-Parr Correlation Functional  0.810          
                  VWN I RPA Correlation Functional  0.190 local    

             Grid Information
             ----------------
          Grid used for XC integration:  medium    
          Radial quadrature: Mura-Knowles        
          Angular quadrature: Lebedev. 
          Tag              B.-S. Rad. Rad. Pts. Rad. Cut. Ang. Pts.
          ---              ---------- --------- --------- ---------
          Ca                  1.80      112          10.0       590
          O                   0.60       49           7.0       434
          Grid pruning is: on 
          Number of quadrature shells:   161
          Spatial weights used:  Erf1

          Convergence Information
          -----------------------
          Convergence aids based upon iterative change in 
          total energy or number of iterations. 
          Levelshifting, if invoked, occurs when the 
          HOMO/LUMO gap drops below (HL_TOL):  1.00D-02
          DIIS, if invoked, will attempt to extrapolate 
          using up to (NFOCK): 10 stored Fock matrices.

                    Damping( 0%)  Levelshifting(0.5)       DIIS
                  --------------- ------------------- ---------------
          dE  on:    start            ASAP                start   
          dE off:    2 iters        500 iters           500 iters 


      Screening Tolerance Information
      -------------------------------
          Density screening/tol_rho:  1.00D-10
          AO Gaussian exp screening on grid/accAOfunc:  14
          CD Gaussian exp screening on grid/accCDfunc:  20
          XC Gaussian exp screening on grid/accXCfunc:  20
          Schwarz screening/accCoul:  1.00D-08


      Superposition of Atomic Density Guess
      -------------------------------------

 Sum of atomic energies:        -751.46227530

      Non-variational initial energy
      ------------------------------

 Total energy =    -751.715041
 1-e energy   =   -1140.764531
 2-e energy   =     332.603916
 HOMO         =      -0.365672
 LUMO         =      -0.155364

  WARNING: movecs_in_org=atomic not equal to movecs_in=./14778.movecs
   Time after variat. SCF:      0.2

     ---------------------------------------------
      Total Density - Mulliken Population Analysis
     ---------------------------------------------

    Atom       Charge   Shell Charges
 -----------   ------   -------------------------------------------------------
    1 Ca  20    18.28   2.00  2.00  6.00  2.01  5.99  0.04  0.02  0.01  0.01  0.19
    2 O    8     9.72   2.00  1.03  3.71  0.93  2.04  0.02

     --------------------------------------------
      Spin Density - Mulliken Population Analysis
     --------------------------------------------

    Atom       Charge   Shell Charges
 -----------   ------   -------------------------------------------------------
    1 Ca  20     0.00   0.00  0.00  0.00  0.00  0.00  0.00  0.00  0.00  0.00  0.00
    2 O    8     0.00   0.00  0.00  0.00  0.00  0.00  0.00
   Time prior to 1st pass:      0.2

 Grid_pts file          = /home/ccardot3/nwchem/nwxpl/ScriptedCalculations/tests/Test/working/scratch/14778.gridpts.0
 Record size in doubles =  12289        No. of grid_pts per rec  =   3070
 Max. records in memory =     36        Max. recs in file   = *********


           Memory utilization after 1st SCF pass: 
           Heap Space remaining (MW):      147.08           147078906
          Stack Space remaining (MW):      245.76           245759564

   convergence    iter        energy       DeltaE   RMS-Dens  Diis-err    time
 ---------------- ----- ----------------- --------- --------- ---------  ------
 d= 0,ls=0.0,diis     1   -752.0732172328 -8.09D+02  5.14D-02  7.05D-01     0.5
                                                     5.14D-02  7.05D-01
 Grid integrated density:      27.999877593570
 Requested integration accuracy:   0.10E-05
 d= 0,ls=0.0,diis     2   -744.8932530411  7.18D+00  5.11D-02  4.15D+00     0.8
                                                     5.11D-02  4.15D+00
 d= 0,ls=0.0,diis     3   -752.1976570018 -7.30D+00  1.71D-02  4.31D-01     1.1
                                                     1.71D-02  4.31D-01
 d= 0,ls=0.0,diis     4   -752.4427531834 -2.45D-01  1.08D-02  8.58D-03     1.3
                                                     1.08D-02  8.58D-03
 d= 0,ls=0.0,diis     5   -752.3716164898  7.11D-02  9.07D-04  1.49D-01     1.7
                                                     9.07D-04  1.49D-01
  Resetting Diis
 d= 0,ls=0.0,diis     6   -752.3883873434 -1.68D-02  4.22D-03  1.17D-01     1.9
                                                     4.22D-03  1.17D-01
 d= 0,ls=0.0,diis     7   -752.4381423920 -4.98D-02  1.34D-02  1.91D-02     2.2
                                                     1.34D-02  1.91D-02
 d= 0,ls=0.0,diis     8   -752.3141039943  1.24D-01  9.73D-03  2.68D-01     2.5
                                                     9.73D-03  2.68D-01
 d= 0,ls=0.0,diis     9   -752.4469569300 -1.33D-01  1.38D-03  1.70D-03     2.8
                                                     1.38D-03  1.70D-03
 d= 0,ls=0.0,diis    10   -752.4479253875 -9.68D-04  3.12D-04  1.46D-04     3.1
                                                     3.12D-04  1.46D-04
 d= 0,ls=0.0,diis    11   -752.4480076729 -8.23D-05  1.50D-05  2.85D-07     3.3
                                                     1.50D-05  2.85D-07
 d= 0,ls=0.0,diis    12   -752.4480078109 -1.38D-07  3.83D-06  3.02D-09     3.7
                                                     3.83D-06  3.02D-09


         Total DFT energy =     -752.448007810850
      One electron energy =    -1144.734349167522
           Coulomb energy =      380.786780515704
    Exchange-Corr. energy =      -44.946012385666
 Nuclear repulsion energy =       56.445573226634

 Numeric. integr. density =       27.999997262044

     Total iterative time =      3.4s



                    DFT Final Alpha Molecular Orbital Analysis
                    ------------------------------------------

 Vector    1  Occ=1.000000D+00  E=-1.453092D+02
              MO Center=  1.6D+01, -1.1D+01,  3.6D-15, r^2= 2.2D-03
   Bfn.  Coefficient  Atom+Function         Bfn.  Coefficient  Atom+Function  
  ----- ------------  ---------------      ----- ------------  ---------------
     1      0.996506  1 Ca s          

 Vector    2  Occ=1.000000D+00  E=-1.899707D+01
              MO Center=  1.7D+01, -1.1D+01, -3.6D-12, r^2= 1.5D-02
   Bfn.  Coefficient  Atom+Function         Bfn.  Coefficient  Atom+Function  
  ----- ------------  ---------------      ----- ------------  ---------------
    23      0.994991  2 O  s                 24      0.028534  2 O  s          

 Vector    3  Occ=1.000000D+00  E=-1.539090D+01
              MO Center=  1.6D+01, -1.1D+01,  3.3D-12, r^2= 4.4D-02
   Bfn.  Coefficient  Atom+Function         Bfn.  Coefficient  Atom+Function  
  ----- ------------  ---------------      ----- ------------  ---------------
     2      1.030725  1 Ca s                  1      0.290067  1 Ca s          

 Vector    4  Occ=1.000000D+00  E=-1.252223D+01
              MO Center=  1.6D+01, -1.1D+01,  3.6D-12, r^2= 3.7D-02
   Bfn.  Coefficient  Atom+Function         Bfn.  Coefficient  Atom+Function  
  ----- ------------  ---------------      ----- ------------  ---------------
     3      0.994803  1 Ca px         

 Vector    5  Occ=1.000000D+00  E=-1.252022D+01
              MO Center=  1.6D+01, -1.1D+01, -3.0D-12, r^2= 3.7D-02
   Bfn.  Coefficient  Atom+Function         Bfn.  Coefficient  Atom+Function  
  ----- ------------  ---------------      ----- ------------  ---------------
     5      0.854007  1 Ca pz                 4     -0.511115  1 Ca py         

 Vector    6  Occ=1.000000D+00  E=-1.252022D+01
              MO Center=  1.6D+01, -1.1D+01, -4.1D-12, r^2= 3.7D-02
   Bfn.  Coefficient  Atom+Function         Bfn.  Coefficient  Atom+Function  
  ----- ------------  ---------------      ----- ------------  ---------------
     4      0.854007  1 Ca py                 5      0.511115  1 Ca pz         

 Vector    7  Occ=1.000000D+00  E=-1.799705D+00
              MO Center=  1.6D+01, -1.1D+01,  3.9D-11, r^2= 4.6D-01
   Bfn.  Coefficient  Atom+Function         Bfn.  Coefficient  Atom+Function  
  ----- ------------  ---------------      ----- ------------  ---------------
     6      1.051588  1 Ca s                  2     -0.420768  1 Ca s          
     1     -0.099740  1 Ca s                 24     -0.046153  2 O  s          
    25      0.041541  2 O  px                28     -0.027265  2 O  s          

 Vector    8  Occ=1.000000D+00  E=-1.161864D+00
              MO Center=  1.6D+01, -1.1D+01,  2.6D-10, r^2= 7.7D-01
   Bfn.  Coefficient  Atom+Function         Bfn.  Coefficient  Atom+Function  
  ----- ------------  ---------------      ----- ------------  ---------------
     7      0.874069  1 Ca px                 3     -0.291347  1 Ca px         
    24      0.203708  2 O  s                 28      0.152555  2 O  s          
     6      0.148590  1 Ca s                 25     -0.120136  2 O  px         
    23     -0.096767  2 O  s                  2     -0.045900  1 Ca s          
    29     -0.035697  2 O  px         

 Vector    9  Occ=1.000000D+00  E=-1.062594D+00
              MO Center=  1.6D+01, -1.1D+01,  3.9D-11, r^2= 5.5D-01
   Bfn.  Coefficient  Atom+Function         Bfn.  Coefficient  Atom+Function  
  ----- ------------  ---------------      ----- ------------  ---------------
     8      0.774708  1 Ca py                 9      0.706212  1 Ca pz         
     4     -0.251522  1 Ca py                 5     -0.229284  1 Ca pz         

 Vector   10  Occ=1.000000D+00  E=-1.062594D+00
              MO Center=  1.6D+01, -1.1D+01,  1.5D-11, r^2= 5.5D-01
   Bfn.  Coefficient  Atom+Function         Bfn.  Coefficient  Atom+Function  
  ----- ------------  ---------------      ----- ------------  ---------------
     9     -0.774708  1 Ca pz                 8      0.706212  1 Ca py         
     5      0.251522  1 Ca pz                 4     -0.229284  1 Ca py         

 Vector   11  Occ=1.000000D+00  E=-6.911835D-01
              MO Center=  1.7D+01, -1.1D+01,  1.2D-09, r^2= 9.2D-01
   Bfn.  Coefficient  Atom+Function         Bfn.  Coefficient  Atom+Function  
  ----- ------------  ---------------      ----- ------------  ---------------
     7      0.571099  1 Ca px                28     -0.571015  2 O  s          
    24     -0.463702  2 O  s                  6     -0.237650  1 Ca s          
    23      0.214042  2 O  s                  3     -0.171819  1 Ca px         
     2      0.066752  1 Ca s                 22     -0.050148  1 Ca d  2       
    25     -0.042508  2 O  px                10     -0.039251  1 Ca s          

 Vector   12  Occ=1.000000D+00  E=-2.371402D-01
              MO Center=  1.7D+01, -1.1D+01, -2.0D-09, r^2= 8.9D-01
   Bfn.  Coefficient  Atom+Function         Bfn.  Coefficient  Atom+Function  
  ----- ------------  ---------------      ----- ------------  ---------------
    27      0.432088  2 O  pz                26      0.409730  2 O  py         
    31      0.310660  2 O  pz                30      0.294585  2 O  py         
    21     -0.123700  1 Ca d  1              18      0.117300  1 Ca d -2       
     9     -0.109400  1 Ca pz                 8     -0.103739  1 Ca py         
    13      0.078402  1 Ca pz                12      0.074345  1 Ca py         

 Vector   13  Occ=1.000000D+00  E=-2.371402D-01
              MO Center=  1.7D+01, -1.1D+01,  2.2D-10, r^2= 8.9D-01
   Bfn.  Coefficient  Atom+Function         Bfn.  Coefficient  Atom+Function  
  ----- ------------  ---------------      ----- ------------  ---------------
    26      0.432088  2 O  py                27     -0.409730  2 O  pz         
    30      0.310660  2 O  py                31     -0.294585  2 O  pz         
    18      0.123700  1 Ca d -2              21      0.117300  1 Ca d  1       
     8     -0.109400  1 Ca py                 9      0.103739  1 Ca pz         
    12      0.078402  1 Ca py                13     -0.074345  1 Ca pz         

 Vector   14  Occ=1.000000D+00  E=-1.483043D-01
              MO Center=  1.7D+01, -1.1D+01,  1.2D-10, r^2= 3.4D+00
   Bfn.  Coefficient  Atom+Function         Bfn.  Coefficient  Atom+Function  
  ----- ------------  ---------------      ----- ------------  ---------------
    25      0.550341  2 O  px                29      0.420999  2 O  px         
     6     -0.389361  1 Ca s                  7      0.369982  1 Ca px         
    10     -0.347514  1 Ca s                 11      0.279356  1 Ca px         
    22     -0.138276  1 Ca d  2              15      0.113027  1 Ca px         
     2      0.106115  1 Ca s                 20      0.079834  1 Ca d  0       

 Vector   15  Occ=0.000000D+00  E=-7.659007D-02
              MO Center=  1.6D+01, -1.1D+01,  3.7D-09, r^2= 6.4D+00
   Bfn.  Coefficient  Atom+Function         Bfn.  Coefficient  Atom+Function  
  ----- ------------  ---------------      ----- ------------  ---------------
    14      0.692700  1 Ca s                 25      0.312732  2 O  px         
     7      0.279745  1 Ca px                10      0.241525  1 Ca s          
    29      0.236859  2 O  px                22     -0.144413  1 Ca d  2       
    15     -0.123699  1 Ca px                28     -0.115084  2 O  s          
    11     -0.091780  1 Ca px                 3     -0.088843  1 Ca px         

 Vector   16  Occ=0.000000D+00  E=-8.727161D-03
              MO Center=  1.6D+01, -1.1D+01, -4.1D-09, r^2= 1.1D+01
   Bfn.  Coefficient  Atom+Function         Bfn.  Coefficient  Atom+Function  
  ----- ------------  ---------------      ----- ------------  ---------------
    16      0.674499  1 Ca py                17      0.481746  1 Ca pz         
    12      0.174903  1 Ca py                13      0.124921  1 Ca pz         
    18     -0.103495  1 Ca d -2              26     -0.079939  2 O  py         
    21      0.073919  1 Ca d  1              30     -0.070277  2 O  py         
    27     -0.057094  2 O  pz                 8     -0.053297  1 Ca py         

 Vector   17  Occ=0.000000D+00  E=-8.727161D-03
              MO Center=  1.6D+01, -1.1D+01, -6.1D-10, r^2= 1.1D+01
   Bfn.  Coefficient  Atom+Function         Bfn.  Coefficient  Atom+Function  
  ----- ------------  ---------------      ----- ------------  ---------------
    17      0.674499  1 Ca pz                16     -0.481746  1 Ca py         
    13      0.174903  1 Ca pz                12     -0.124921  1 Ca py         
    21      0.103495  1 Ca d  1              27     -0.079939  2 O  pz         
    18      0.073919  1 Ca d -2              31     -0.070277  2 O  pz         
    26      0.057094  2 O  py                 9     -0.053297  1 Ca pz         

 Vector   18  Occ=0.000000D+00  E= 2.698307D-02
              MO Center=  1.6D+01, -1.1D+01, -9.1D-11, r^2= 1.3D+01
   Bfn.  Coefficient  Atom+Function         Bfn.  Coefficient  Atom+Function  
  ----- ------------  ---------------      ----- ------------  ---------------
    15      1.077009  1 Ca px                10      0.453027  1 Ca s          
     7     -0.230538  1 Ca px                29     -0.221717  2 O  px         
    11     -0.191786  1 Ca px                 6      0.172363  1 Ca s          
    25     -0.161948  2 O  px                22     -0.127735  1 Ca d  2       
    14     -0.123298  1 Ca s                 28     -0.117431  2 O  s          

 Vector   19  Occ=0.000000D+00  E= 7.817255D-02
              MO Center=  1.6D+01, -1.1D+01,  7.4D-09, r^2= 1.3D+01
   Bfn.  Coefficient  Atom+Function         Bfn.  Coefficient  Atom+Function  
  ----- ------------  ---------------      ----- ------------  ---------------
    14     -2.009899  1 Ca s                 10      1.986039  1 Ca s          
    11     -0.248179  1 Ca px                 6     -0.181899  1 Ca s          
    25      0.167770  2 O  px                29      0.162967  2 O  px         
     2     -0.120587  1 Ca s                  7      0.118418  1 Ca px         
    22     -0.076929  1 Ca d  2              28     -0.067329  2 O  s          

 Vector   20  Occ=0.000000D+00  E= 1.330570D-01
              MO Center=  1.6D+01, -1.1D+01, -4.5D-09, r^2= 1.1D+01
   Bfn.  Coefficient  Atom+Function         Bfn.  Coefficient  Atom+Function  
  ----- ------------  ---------------      ----- ------------  ---------------
    13      1.334913  1 Ca pz                17     -1.148584  1 Ca pz         
    12      0.651498  1 Ca py                16     -0.560561  1 Ca py         
     9      0.270232  1 Ca pz                21      0.224712  1 Ca d  1       
     8      0.131886  1 Ca py                18     -0.109670  1 Ca d -2       
     5      0.102619  1 Ca pz                 4      0.050083  1 Ca py         

 Vector   21  Occ=0.000000D+00  E= 1.330570D-01
              MO Center=  1.6D+01, -1.1D+01,  4.2D-09, r^2= 1.1D+01
   Bfn.  Coefficient  Atom+Function         Bfn.  Coefficient  Atom+Function  
  ----- ------------  ---------------      ----- ------------  ---------------
    12      1.334913  1 Ca py                16     -1.148584  1 Ca py         
    13     -0.651498  1 Ca pz                17      0.560561  1 Ca pz         
     8      0.270232  1 Ca py                18     -0.224712  1 Ca d -2       
     9     -0.131886  1 Ca pz                21     -0.109670  1 Ca d  1       
     4      0.102619  1 Ca py                 5     -0.050083  1 Ca pz         

 Vector   22  Occ=0.000000D+00  E= 1.462578D-01
              MO Center=  1.6D+01, -1.1D+01, -1.6D-09, r^2= 9.1D+00
   Bfn.  Coefficient  Atom+Function         Bfn.  Coefficient  Atom+Function  
  ----- ------------  ---------------      ----- ------------  ---------------
    11      1.519672  1 Ca px                15     -1.112058  1 Ca px         
    10      0.522846  1 Ca s                 28     -0.384210  2 O  s          
     7      0.344153  1 Ca px                14     -0.303457  1 Ca s          
    22     -0.265781  1 Ca d  2              20      0.153449  1 Ca d  0       
     3      0.108605  1 Ca px                25     -0.108771  2 O  px         

 Vector   23  Occ=0.000000D+00  E= 2.050261D-01
              MO Center=  1.6D+01, -1.1D+01, -1.2D-09, r^2= 2.5D+00
   Bfn.  Coefficient  Atom+Function         Bfn.  Coefficient  Atom+Function  
  ----- ------------  ---------------      ----- ------------  ---------------
    20      0.864724  1 Ca d  0              22      0.499248  1 Ca d  2       

 Vector   24  Occ=0.000000D+00  E= 2.050276D-01
              MO Center=  1.6D+01, -1.1D+01, -2.9D-09, r^2= 2.5D+00
   Bfn.  Coefficient  Atom+Function         Bfn.  Coefficient  Atom+Function  
  ----- ------------  ---------------      ----- ------------  ---------------
    19      0.998497  1 Ca d -1       

 Vector   25  Occ=0.000000D+00  E= 3.274369D-01
              MO Center=  1.6D+01, -1.1D+01,  1.2D-10, r^2= 3.0D+00
   Bfn.  Coefficient  Atom+Function         Bfn.  Coefficient  Atom+Function  
  ----- ------------  ---------------      ----- ------------  ---------------
    21      0.862619  1 Ca d  1              18     -0.767038  1 Ca d -2       
    13     -0.470069  1 Ca pz                31      0.443699  2 O  pz         
    12     -0.417983  1 Ca py                30      0.394536  2 O  py         
    17      0.233398  1 Ca pz                27      0.230953  2 O  pz         
    16      0.207536  1 Ca py                26      0.205363  2 O  py         

 Vector   26  Occ=0.000000D+00  E= 3.274369D-01
              MO Center=  1.6D+01, -1.1D+01, -2.3D-10, r^2= 3.0D+00
   Bfn.  Coefficient  Atom+Function         Bfn.  Coefficient  Atom+Function  
  ----- ------------  ---------------      ----- ------------  ---------------
    18      0.862619  1 Ca d -2              21      0.767038  1 Ca d  1       
    12      0.470069  1 Ca py                30     -0.443699  2 O  py         
    13     -0.417983  1 Ca pz                31      0.394536  2 O  pz         
    16     -0.233398  1 Ca py                26     -0.230953  2 O  py         
    17      0.207536  1 Ca pz                27      0.205363  2 O  pz         

 Vector   27  Occ=0.000000D+00  E= 3.928283D-01
              MO Center=  1.6D+01, -1.1D+01, -1.2D-09, r^2= 5.9D+00
   Bfn.  Coefficient  Atom+Function         Bfn.  Coefficient  Atom+Function  
  ----- ------------  ---------------      ----- ------------  ---------------
    28      1.902690  2 O  s                 11     -1.613824  1 Ca px         
    10     -1.537878  1 Ca s                 22     -1.242907  1 Ca d  2       
     7     -1.072365  1 Ca px                20      0.717593  1 Ca d  0       
    15      0.712769  1 Ca px                14      0.690068  1 Ca s          
    29     -0.599253  2 O  px                 6      0.538562  1 Ca s          

 Vector   28  Occ=0.000000D+00  E= 1.089257D+00
              MO Center=  1.8D+01, -1.1D+01, -5.0D-09, r^2= 1.4D+00
   Bfn.  Coefficient  Atom+Function         Bfn.  Coefficient  Atom+Function  
  ----- ------------  ---------------      ----- ------------  ---------------
    29      1.217779  2 O  px                25     -0.944429  2 O  px         
     6     -0.382731  1 Ca s                 22     -0.280516  1 Ca d  2       
    28      0.251614  2 O  s                 14     -0.249989  1 Ca s          
    10      0.195619  1 Ca s                 20      0.161956  1 Ca d  0       
     7      0.149827  1 Ca px                11     -0.143517  1 Ca px         

 Vector   29  Occ=0.000000D+00  E= 1.093374D+00
              MO Center=  1.8D+01, -1.1D+01,  1.8D-09, r^2= 1.5D+00
   Bfn.  Coefficient  Atom+Function         Bfn.  Coefficient  Atom+Function  
  ----- ------------  ---------------      ----- ------------  ---------------
    30      1.039671  2 O  py                31      0.914746  2 O  pz         
    26     -0.714478  2 O  py                27     -0.628627  2 O  pz         
    12     -0.341464  1 Ca py                18     -0.323053  1 Ca d -2       
    13     -0.300434  1 Ca pz                21      0.284236  1 Ca d  1       
     8     -0.213210  1 Ca py                 9     -0.187591  1 Ca pz         

 Vector   30  Occ=0.000000D+00  E= 1.093374D+00
              MO Center=  1.8D+01, -1.1D+01,  1.7D-09, r^2= 1.5D+00
   Bfn.  Coefficient  Atom+Function         Bfn.  Coefficient  Atom+Function  
  ----- ------------  ---------------      ----- ------------  ---------------
    31      1.039671  2 O  pz                30     -0.914746  2 O  py         
    27     -0.714478  2 O  pz                26      0.628627  2 O  py         
    13     -0.341464  1 Ca pz                21      0.323053  1 Ca d  1       
    12      0.300434  1 Ca py                18      0.284236  1 Ca d -2       
     9     -0.213210  1 Ca pz                 8      0.187591  1 Ca py         

 Vector   31  Occ=0.000000D+00  E= 1.494784D+00
              MO Center=  1.7D+01, -1.1D+01,  2.7D-09, r^2= 2.2D+00
   Bfn.  Coefficient  Atom+Function         Bfn.  Coefficient  Atom+Function  
  ----- ------------  ---------------      ----- ------------  ---------------
    28      2.862573  2 O  s                 24     -1.704572  2 O  s          
    10     -1.149028  1 Ca s                 11     -1.098809  1 Ca px         
     7     -0.845864  1 Ca px                 6      0.556589  1 Ca s          
    29     -0.517475  2 O  px                14      0.403289  1 Ca s          
    15      0.379418  1 Ca px                22     -0.377225  1 Ca d  2       

 Vector   32  Occ=0.000000D+00  E= 1.886887D+00
              MO Center=  1.7D+01, -1.1D+01, -2.9D-11, r^2= 6.7D-01
   Bfn.  Coefficient  Atom+Function         Bfn.  Coefficient  Atom+Function  
  ----- ------------  ---------------      ----- ------------  ---------------
    34      0.872997  2 O  d  0              36      0.504025  2 O  d  2       
    20     -0.120304  1 Ca d  0              22     -0.069457  1 Ca d  2       

 Vector   33  Occ=0.000000D+00  E= 1.886887D+00
              MO Center=  1.7D+01, -1.1D+01, -2.2D-10, r^2= 6.7D-01
   Bfn.  Coefficient  Atom+Function         Bfn.  Coefficient  Atom+Function  
  ----- ------------  ---------------      ----- ------------  ---------------
    33      1.008050  2 O  d -1              19     -0.138915  1 Ca d -1       

 Vector   34  Occ=0.000000D+00  E= 1.925315D+00
              MO Center=  1.7D+01, -1.1D+01,  2.1D-10, r^2= 9.8D-01
   Bfn.  Coefficient  Atom+Function         Bfn.  Coefficient  Atom+Function  
  ----- ------------  ---------------      ----- ------------  ---------------
    32      0.745717  2 O  d -2              35     -0.742167  2 O  d  1       
    30     -0.304208  2 O  py                31     -0.302759  2 O  pz         
    18      0.291990  1 Ca d -2              21     -0.290600  1 Ca d  1       
     8      0.185048  1 Ca py                 9      0.184167  1 Ca pz         
    12      0.172860  1 Ca py                13      0.172037  1 Ca pz         

 Vector   35  Occ=0.000000D+00  E= 1.925315D+00
              MO Center=  1.7D+01, -1.1D+01, -1.2D-12, r^2= 9.8D-01
   Bfn.  Coefficient  Atom+Function         Bfn.  Coefficient  Atom+Function  
  ----- ------------  ---------------      ----- ------------  ---------------
    32      0.742167  2 O  d -2              35      0.745717  2 O  d  1       
    30     -0.302759  2 O  py                31      0.304208  2 O  pz         
    18      0.290600  1 Ca d -2              21      0.291990  1 Ca d  1       
     8      0.184167  1 Ca py                 9     -0.185048  1 Ca pz         
    12      0.172037  1 Ca py                13     -0.172860  1 Ca pz         

 Vector   36  Occ=0.000000D+00  E= 2.075611D+00
              MO Center=  1.7D+01, -1.1D+01,  5.7D-11, r^2= 7.8D-01
   Bfn.  Coefficient  Atom+Function         Bfn.  Coefficient  Atom+Function  
  ----- ------------  ---------------      ----- ------------  ---------------
    36      0.920722  2 O  d  2              28      0.888390  2 O  s          
     7     -0.637781  1 Ca px                29     -0.602877  2 O  px         
     6      0.582097  1 Ca s                 34     -0.531579  2 O  d  0       
    24     -0.506395  2 O  s                 10     -0.288927  1 Ca s          
    25      0.223053  2 O  px                14      0.135781  1 Ca s          


                     DFT Final Beta Molecular Orbital Analysis
                     -----------------------------------------

 Vector    1  Occ=1.000000D+00  E=-1.453092D+02
              MO Center=  1.6D+01, -1.1D+01,  3.6D-15, r^2= 2.2D-03
   Bfn.  Coefficient  Atom+Function         Bfn.  Coefficient  Atom+Function  
  ----- ------------  ---------------      ----- ------------  ---------------
     1      0.996506  1 Ca s          

 Vector    2  Occ=1.000000D+00  E=-1.899707D+01
              MO Center=  1.7D+01, -1.1D+01, -3.6D-12, r^2= 1.5D-02
   Bfn.  Coefficient  Atom+Function         Bfn.  Coefficient  Atom+Function  
  ----- ------------  ---------------      ----- ------------  ---------------
    23      0.994991  2 O  s                 24      0.028534  2 O  s          

 Vector    3  Occ=1.000000D+00  E=-1.539090D+01
              MO Center=  1.6D+01, -1.1D+01,  3.3D-12, r^2= 4.4D-02
   Bfn.  Coefficient  Atom+Function         Bfn.  Coefficient  Atom+Function  
  ----- ------------  ---------------      ----- ------------  ---------------
     2      1.030725  1 Ca s                  1      0.290067  1 Ca s          

 Vector    4  Occ=1.000000D+00  E=-1.252223D+01
              MO Center=  1.6D+01, -1.1D+01,  3.6D-12, r^2= 3.7D-02
   Bfn.  Coefficient  Atom+Function         Bfn.  Coefficient  Atom+Function  
  ----- ------------  ---------------      ----- ------------  ---------------
     3      0.994803  1 Ca px         

 Vector    5  Occ=1.000000D+00  E=-1.252022D+01
              MO Center=  1.6D+01, -1.1D+01, -3.0D-12, r^2= 3.7D-02
   Bfn.  Coefficient  Atom+Function         Bfn.  Coefficient  Atom+Function  
  ----- ------------  ---------------      ----- ------------  ---------------
     5      0.857000  1 Ca pz                 4     -0.506080  1 Ca py         

 Vector    6  Occ=1.000000D+00  E=-1.252022D+01
              MO Center=  1.6D+01, -1.1D+01, -4.1D-12, r^2= 3.7D-02
   Bfn.  Coefficient  Atom+Function         Bfn.  Coefficient  Atom+Function  
  ----- ------------  ---------------      ----- ------------  ---------------
     4      0.857000  1 Ca py                 5      0.506080  1 Ca pz         

 Vector    7  Occ=1.000000D+00  E=-1.799705D+00
              MO Center=  1.6D+01, -1.1D+01,  3.9D-11, r^2= 4.6D-01
   Bfn.  Coefficient  Atom+Function         Bfn.  Coefficient  Atom+Function  
  ----- ------------  ---------------      ----- ------------  ---------------
     6      1.051588  1 Ca s                  2     -0.420768  1 Ca s          
     1     -0.099740  1 Ca s                 24     -0.046153  2 O  s          
    25      0.041541  2 O  px                28     -0.027265  2 O  s          

 Vector    8  Occ=1.000000D+00  E=-1.161864D+00
              MO Center=  1.6D+01, -1.1D+01,  2.6D-10, r^2= 7.7D-01
   Bfn.  Coefficient  Atom+Function         Bfn.  Coefficient  Atom+Function  
  ----- ------------  ---------------      ----- ------------  ---------------
     7      0.874069  1 Ca px                 3     -0.291347  1 Ca px         
    24      0.203708  2 O  s                 28      0.152555  2 O  s          
     6      0.148590  1 Ca s                 25     -0.120136  2 O  px         
    23     -0.096767  2 O  s                  2     -0.045900  1 Ca s          
    29     -0.035697  2 O  px         

 Vector    9  Occ=1.000000D+00  E=-1.062594D+00
              MO Center=  1.6D+01, -1.1D+01,  3.9D-11, r^2= 5.5D-01
   Bfn.  Coefficient  Atom+Function         Bfn.  Coefficient  Atom+Function  
  ----- ------------  ---------------      ----- ------------  ---------------
     8      0.774752  1 Ca py                 9      0.706163  1 Ca pz         
     4     -0.251537  1 Ca py                 5     -0.229268  1 Ca pz         

 Vector   10  Occ=1.000000D+00  E=-1.062594D+00
              MO Center=  1.6D+01, -1.1D+01,  1.5D-11, r^2= 5.5D-01
   Bfn.  Coefficient  Atom+Function         Bfn.  Coefficient  Atom+Function  
  ----- ------------  ---------------      ----- ------------  ---------------
     9     -0.774752  1 Ca pz                 8      0.706163  1 Ca py         
     5      0.251537  1 Ca pz                 4     -0.229268  1 Ca py         

 Vector   11  Occ=1.000000D+00  E=-6.911835D-01
              MO Center=  1.7D+01, -1.1D+01,  1.2D-09, r^2= 9.2D-01
   Bfn.  Coefficient  Atom+Function         Bfn.  Coefficient  Atom+Function  
  ----- ------------  ---------------      ----- ------------  ---------------
     7      0.571099  1 Ca px                28     -0.571015  2 O  s          
    24     -0.463702  2 O  s                  6     -0.237650  1 Ca s          
    23      0.214042  2 O  s                  3     -0.171819  1 Ca px         
     2      0.066752  1 Ca s                 22     -0.050148  1 Ca d  2       
    25     -0.042508  2 O  px                10     -0.039251  1 Ca s          

 Vector   12  Occ=1.000000D+00  E=-2.371402D-01
              MO Center=  1.7D+01, -1.1D+01, -2.0D-09, r^2= 8.9D-01
   Bfn.  Coefficient  Atom+Function         Bfn.  Coefficient  Atom+Function  
  ----- ------------  ---------------      ----- ------------  ---------------
    27      0.432082  2 O  pz                26      0.409736  2 O  py         
    31      0.310656  2 O  pz                30      0.294590  2 O  py         
    21     -0.123699  1 Ca d  1              18      0.117301  1 Ca d -2       
     9     -0.109398  1 Ca pz                 8     -0.103740  1 Ca py         
    13      0.078401  1 Ca pz                12      0.074346  1 Ca py         

 Vector   13  Occ=1.000000D+00  E=-2.371402D-01
              MO Center=  1.7D+01, -1.1D+01,  2.2D-10, r^2= 8.9D-01
   Bfn.  Coefficient  Atom+Function         Bfn.  Coefficient  Atom+Function  
  ----- ------------  ---------------      ----- ------------  ---------------
    26      0.432082  2 O  py                27     -0.409736  2 O  pz         
    30      0.310656  2 O  py                31     -0.294590  2 O  pz         
    18      0.123699  1 Ca d -2              21      0.117301  1 Ca d  1       
     8     -0.109398  1 Ca py                 9      0.103740  1 Ca pz         
    12      0.078401  1 Ca py                13     -0.074346  1 Ca pz         

 Vector   14  Occ=1.000000D+00  E=-1.483043D-01
              MO Center=  1.7D+01, -1.1D+01,  1.2D-10, r^2= 3.4D+00
   Bfn.  Coefficient  Atom+Function         Bfn.  Coefficient  Atom+Function  
  ----- ------------  ---------------      ----- ------------  ---------------
    25      0.550341  2 O  px                29      0.420999  2 O  px         
     6     -0.389361  1 Ca s                  7      0.369982  1 Ca px         
    10     -0.347514  1 Ca s                 11      0.279356  1 Ca px         
    22     -0.138276  1 Ca d  2              15      0.113027  1 Ca px         
     2      0.106115  1 Ca s                 20      0.079834  1 Ca d  0       

 Vector   15  Occ=0.000000D+00  E=-7.659007D-02
              MO Center=  1.6D+01, -1.1D+01,  3.7D-09, r^2= 6.4D+00
   Bfn.  Coefficient  Atom+Function         Bfn.  Coefficient  Atom+Function  
  ----- ------------  ---------------      ----- ------------  ---------------
    14      0.692700  1 Ca s                 25      0.312732  2 O  px         
     7      0.279745  1 Ca px                10      0.241525  1 Ca s          
    29      0.236859  2 O  px                22     -0.144413  1 Ca d  2       
    15     -0.123699  1 Ca px                28     -0.115084  2 O  s          
    11     -0.091780  1 Ca px                 3     -0.088843  1 Ca px         

 Vector   16  Occ=0.000000D+00  E=-8.727161D-03
              MO Center=  1.6D+01, -1.1D+01, -4.1D-09, r^2= 1.1D+01
   Bfn.  Coefficient  Atom+Function         Bfn.  Coefficient  Atom+Function  
  ----- ------------  ---------------      ----- ------------  ---------------
    16      0.674492  1 Ca py                17      0.481755  1 Ca pz         
    12      0.174901  1 Ca py                13      0.124923  1 Ca pz         
    18     -0.103494  1 Ca d -2              26     -0.079938  2 O  py         
    21      0.073920  1 Ca d  1              30     -0.070277  2 O  py         
    27     -0.057096  2 O  pz                 8     -0.053296  1 Ca py         

 Vector   17  Occ=0.000000D+00  E=-8.727161D-03
              MO Center=  1.6D+01, -1.1D+01, -6.1D-10, r^2= 1.1D+01
   Bfn.  Coefficient  Atom+Function         Bfn.  Coefficient  Atom+Function  
  ----- ------------  ---------------      ----- ------------  ---------------
    17      0.674492  1 Ca pz                16     -0.481755  1 Ca py         
    13      0.174901  1 Ca pz                12     -0.124923  1 Ca py         
    21      0.103494  1 Ca d  1              27     -0.079938  2 O  pz         
    18      0.073920  1 Ca d -2              31     -0.070277  2 O  pz         
    26      0.057096  2 O  py                 9     -0.053296  1 Ca pz         

 Vector   18  Occ=0.000000D+00  E= 2.698307D-02
              MO Center=  1.6D+01, -1.1D+01, -9.1D-11, r^2= 1.3D+01
   Bfn.  Coefficient  Atom+Function         Bfn.  Coefficient  Atom+Function  
  ----- ------------  ---------------      ----- ------------  ---------------
    15      1.077009  1 Ca px                10      0.453027  1 Ca s          
     7     -0.230538  1 Ca px                29     -0.221717  2 O  px         
    11     -0.191786  1 Ca px                 6      0.172363  1 Ca s          
    25     -0.161948  2 O  px                22     -0.127735  1 Ca d  2       
    14     -0.123298  1 Ca s                 28     -0.117431  2 O  s          

 Vector   19  Occ=0.000000D+00  E= 7.817255D-02
              MO Center=  1.6D+01, -1.1D+01,  7.4D-09, r^2= 1.3D+01
   Bfn.  Coefficient  Atom+Function         Bfn.  Coefficient  Atom+Function  
  ----- ------------  ---------------      ----- ------------  ---------------
    14     -2.009899  1 Ca s                 10      1.986039  1 Ca s          
    11     -0.248179  1 Ca px                 6     -0.181899  1 Ca s          
    25      0.167770  2 O  px                29      0.162967  2 O  px         
     2     -0.120587  1 Ca s                  7      0.118418  1 Ca px         
    22     -0.076929  1 Ca d  2              28     -0.067329  2 O  s          

 Vector   20  Occ=0.000000D+00  E= 1.330570D-01
              MO Center=  1.6D+01, -1.1D+01, -4.5D-09, r^2= 1.1D+01
   Bfn.  Coefficient  Atom+Function         Bfn.  Coefficient  Atom+Function  
  ----- ------------  ---------------      ----- ------------  ---------------
    13      1.334909  1 Ca pz                17     -1.148580  1 Ca pz         
    12      0.651506  1 Ca py                16     -0.560567  1 Ca py         
     9      0.270232  1 Ca pz                21      0.224712  1 Ca d  1       
     8      0.131887  1 Ca py                18     -0.109671  1 Ca d -2       
     5      0.102619  1 Ca pz                 4      0.050083  1 Ca py         

 Vector   21  Occ=0.000000D+00  E= 1.330570D-01
              MO Center=  1.6D+01, -1.1D+01,  4.2D-09, r^2= 1.1D+01
   Bfn.  Coefficient  Atom+Function         Bfn.  Coefficient  Atom+Function  
  ----- ------------  ---------------      ----- ------------  ---------------
    12      1.334909  1 Ca py                16     -1.148580  1 Ca py         
    13     -0.651506  1 Ca pz                17      0.560567  1 Ca pz         
     8      0.270232  1 Ca py                18     -0.224712  1 Ca d -2       
     9     -0.131887  1 Ca pz                21     -0.109671  1 Ca d  1       
     4      0.102619  1 Ca py                 5     -0.050083  1 Ca pz         

 Vector   22  Occ=0.000000D+00  E= 1.462578D-01
              MO Center=  1.6D+01, -1.1D+01, -1.6D-09, r^2= 9.1D+00
   Bfn.  Coefficient  Atom+Function         Bfn.  Coefficient  Atom+Function  
  ----- ------------  ---------------      ----- ------------  ---------------
    11      1.519672  1 Ca px                15     -1.112058  1 Ca px         
    10      0.522846  1 Ca s                 28     -0.384210  2 O  s          
     7      0.344153  1 Ca px                14     -0.303457  1 Ca s          
    22     -0.265781  1 Ca d  2              20      0.153449  1 Ca d  0       
     3      0.108605  1 Ca px                25     -0.108771  2 O  px         

 Vector   23  Occ=0.000000D+00  E= 2.050261D-01
              MO Center=  1.6D+01, -1.1D+01, -1.2D-09, r^2= 2.5D+00
   Bfn.  Coefficient  Atom+Function         Bfn.  Coefficient  Atom+Function  
  ----- ------------  ---------------      ----- ------------  ---------------
    20      0.864724  1 Ca d  0              22      0.499248  1 Ca d  2       

 Vector   24  Occ=0.000000D+00  E= 2.050276D-01
              MO Center=  1.6D+01, -1.1D+01, -2.9D-09, r^2= 2.5D+00
   Bfn.  Coefficient  Atom+Function         Bfn.  Coefficient  Atom+Function  
  ----- ------------  ---------------      ----- ------------  ---------------
    19      0.998497  1 Ca d -1       

 Vector   25  Occ=0.000000D+00  E= 3.274369D-01
              MO Center=  1.6D+01, -1.1D+01,  1.2D-10, r^2= 3.0D+00
   Bfn.  Coefficient  Atom+Function         Bfn.  Coefficient  Atom+Function  
  ----- ------------  ---------------      ----- ------------  ---------------
    21      0.862598  1 Ca d  1              18     -0.767062  1 Ca d -2       
    13     -0.470057  1 Ca pz                31      0.443688  2 O  pz         
    12     -0.417996  1 Ca py                30      0.394548  2 O  py         
    17      0.233392  1 Ca pz                27      0.230947  2 O  pz         
    16      0.207543  1 Ca py                26      0.205369  2 O  py         

 Vector   26  Occ=0.000000D+00  E= 3.274369D-01
              MO Center=  1.6D+01, -1.1D+01, -2.3D-10, r^2= 3.0D+00
   Bfn.  Coefficient  Atom+Function         Bfn.  Coefficient  Atom+Function  
  ----- ------------  ---------------      ----- ------------  ---------------
    18      0.862598  1 Ca d -2              21      0.767062  1 Ca d  1       
    12      0.470057  1 Ca py                30     -0.443688  2 O  py         
    13     -0.417996  1 Ca pz                31      0.394548  2 O  pz         
    16     -0.233392  1 Ca py                26     -0.230947  2 O  py         
    17      0.207543  1 Ca pz                27      0.205369  2 O  pz         

 Vector   27  Occ=0.000000D+00  E= 3.928283D-01
              MO Center=  1.6D+01, -1.1D+01, -1.2D-09, r^2= 5.9D+00
   Bfn.  Coefficient  Atom+Function         Bfn.  Coefficient  Atom+Function  
  ----- ------------  ---------------      ----- ------------  ---------------
    28      1.902690  2 O  s                 11     -1.613824  1 Ca px         
    10     -1.537878  1 Ca s                 22     -1.242907  1 Ca d  2       
     7     -1.072365  1 Ca px                20      0.717593  1 Ca d  0       
    15      0.712769  1 Ca px                14      0.690068  1 Ca s          
    29     -0.599253  2 O  px                 6      0.538562  1 Ca s          

 Vector   28  Occ=0.000000D+00  E= 1.089257D+00
              MO Center=  1.8D+01, -1.1D+01, -5.0D-09, r^2= 1.4D+00
   Bfn.  Coefficient  Atom+Function         Bfn.  Coefficient  Atom+Function  
  ----- ------------  ---------------      ----- ------------  ---------------
    29      1.217779  2 O  px                25     -0.944429  2 O  px         
     6     -0.382731  1 Ca s                 22     -0.280516  1 Ca d  2       
    28      0.251614  2 O  s                 14     -0.249989  1 Ca s          
    10      0.195619  1 Ca s                 20      0.161956  1 Ca d  0       
     7      0.149827  1 Ca px                11     -0.143517  1 Ca px         

 Vector   29  Occ=0.000000D+00  E= 1.093374D+00
              MO Center=  1.8D+01, -1.1D+01,  1.8D-09, r^2= 1.5D+00
   Bfn.  Coefficient  Atom+Function         Bfn.  Coefficient  Atom+Function  
  ----- ------------  ---------------      ----- ------------  ---------------
    30      1.039644  2 O  py                31      0.914777  2 O  pz         
    26     -0.714459  2 O  py                27     -0.628649  2 O  pz         
    12     -0.341455  1 Ca py                18     -0.323045  1 Ca d -2       
    13     -0.300444  1 Ca pz                21      0.284246  1 Ca d  1       
     8     -0.213204  1 Ca py                 9     -0.187597  1 Ca pz         

 Vector   30  Occ=0.000000D+00  E= 1.093374D+00
              MO Center=  1.8D+01, -1.1D+01,  1.7D-09, r^2= 1.5D+00
   Bfn.  Coefficient  Atom+Function         Bfn.  Coefficient  Atom+Function  
  ----- ------------  ---------------      ----- ------------  ---------------
    31      1.039644  2 O  pz                30     -0.914777  2 O  py         
    27     -0.714459  2 O  pz                26      0.628649  2 O  py         
    13     -0.341455  1 Ca pz                21      0.323045  1 Ca d  1       
    12      0.300444  1 Ca py                18      0.284246  1 Ca d -2       
     9     -0.213204  1 Ca pz                 8      0.187597  1 Ca py         

 Vector   31  Occ=0.000000D+00  E= 1.494784D+00
              MO Center=  1.7D+01, -1.1D+01,  2.7D-09, r^2= 2.2D+00
   Bfn.  Coefficient  Atom+Function         Bfn.  Coefficient  Atom+Function  
  ----- ------------  ---------------      ----- ------------  ---------------
    28      2.862573  2 O  s                 24     -1.704572  2 O  s          
    10     -1.149028  1 Ca s                 11     -1.098809  1 Ca px         
     7     -0.845864  1 Ca px                 6      0.556589  1 Ca s          
    29     -0.517475  2 O  px                14      0.403289  1 Ca s          
    15      0.379418  1 Ca px                22     -0.377225  1 Ca d  2       

 Vector   32  Occ=0.000000D+00  E= 1.886887D+00
              MO Center=  1.7D+01, -1.1D+01, -2.9D-11, r^2= 6.7D-01
   Bfn.  Coefficient  Atom+Function         Bfn.  Coefficient  Atom+Function  
  ----- ------------  ---------------      ----- ------------  ---------------
    34      0.872997  2 O  d  0              36      0.504025  2 O  d  2       
    20     -0.120304  1 Ca d  0              22     -0.069457  1 Ca d  2       

 Vector   33  Occ=0.000000D+00  E= 1.886887D+00
              MO Center=  1.7D+01, -1.1D+01, -2.2D-10, r^2= 6.7D-01
   Bfn.  Coefficient  Atom+Function         Bfn.  Coefficient  Atom+Function  
  ----- ------------  ---------------      ----- ------------  ---------------
    33      1.008050  2 O  d -1              19     -0.138915  1 Ca d -1       

 Vector   34  Occ=0.000000D+00  E= 1.925315D+00
              MO Center=  1.7D+01, -1.1D+01,  2.1D-10, r^2= 9.8D-01
   Bfn.  Coefficient  Atom+Function         Bfn.  Coefficient  Atom+Function  
  ----- ------------  ---------------      ----- ------------  ---------------
    32      0.745726  2 O  d -2              35     -0.742159  2 O  d  1       
    30     -0.304211  2 O  py                31     -0.302756  2 O  pz         
    18      0.291994  1 Ca d -2              21     -0.290597  1 Ca d  1       
     8      0.185050  1 Ca py                 9      0.184164  1 Ca pz         
    12      0.172862  1 Ca py                13      0.172035  1 Ca pz         

 Vector   35  Occ=0.000000D+00  E= 1.925315D+00
              MO Center=  1.7D+01, -1.1D+01, -1.2D-12, r^2= 9.8D-01
   Bfn.  Coefficient  Atom+Function         Bfn.  Coefficient  Atom+Function  
  ----- ------------  ---------------      ----- ------------  ---------------
    32      0.742159  2 O  d -2              35      0.745726  2 O  d  1       
    30     -0.302756  2 O  py                31      0.304211  2 O  pz         
    18      0.290597  1 Ca d -2              21      0.291994  1 Ca d  1       
     8      0.184164  1 Ca py                 9     -0.185050  1 Ca pz         
    12      0.172035  1 Ca py                13     -0.172862  1 Ca pz         

 Vector   36  Occ=0.000000D+00  E= 2.075611D+00
              MO Center=  1.7D+01, -1.1D+01,  5.7D-11, r^2= 7.8D-01
   Bfn.  Coefficient  Atom+Function         Bfn.  Coefficient  Atom+Function  
  ----- ------------  ---------------      ----- ------------  ---------------
    36      0.920722  2 O  d  2              28      0.888390  2 O  s          
     7     -0.637781  1 Ca px                29     -0.602877  2 O  px         
     6      0.582097  1 Ca s                 34     -0.531579  2 O  d  0       
    24     -0.506395  2 O  s                 10     -0.288927  1 Ca s          
    25      0.223053  2 O  px                14      0.135781  1 Ca s          


     ---------------------------------------------
      Total Density - Mulliken Population Analysis
     ---------------------------------------------

    Atom       Charge   Shell Charges
 -----------   ------   -------------------------------------------------------
    1 Ca  20    19.27   2.00  2.00  6.00  2.01  5.97  0.28  0.36  0.03  0.12  0.50
    2 O    8     8.73   2.00  0.93  2.90  1.00  1.90  0.01

     --------------------------------------------
      Spin Density - Mulliken Population Analysis
     --------------------------------------------

    Atom       Charge   Shell Charges
 -----------   ------   -------------------------------------------------------
    1 Ca  20    -0.00  -0.00  0.00 -0.00  0.00  0.00 -0.00 -0.00 -0.00 -0.00  0.00
    2 O    8     0.00   0.00  0.00  0.00 -0.00  0.00 -0.00

     -------------------------------------------
      Total Density - Lowdin Population Analysis
     -------------------------------------------

    Atom       Charge   Shell Charges
 -----------   ------   -------------------------------------------------------
    1 Ca  20    19.37   2.00  2.00  5.97  1.87  5.68  0.31  0.48  0.12  0.22  0.71
    2 O    8     8.63   2.00  0.90  2.81  0.79  2.05  0.09

     ------------------------------------------
      Spin Density - Lowdin Population Analysis
     ------------------------------------------

    Atom       Charge   Shell Charges
 -----------   ------   -------------------------------------------------------
    1 Ca  20    -0.00  -0.00  0.00 -0.00 -0.00  0.00 -0.00 -0.00 -0.00 -0.00  0.00
    2 O    8     0.00   0.00  0.00  0.00 -0.00  0.00  0.00

   alpha - beta orbital overlaps 
   ----------------------------- 


   alpha      1      2      3      4      5      6      7      8      9     10
    beta      1      2      3      4      5      6      7      8      9     10
 overlap   1.000  1.000  1.000  1.000  1.000  1.000  1.000  1.000  1.000  1.000


   alpha     11     12     13     14     15     16     17     18     19     20
    beta     11     12     13     14     15     16     17     18     19     20
 overlap   1.000  1.000  1.000  1.000  1.000  1.000  1.000  1.000  1.000  1.000


   alpha     21     22     23     24     25     26     27     28     29     30
    beta     21     22     23     24     25     26     27     28     29     30
 overlap   1.000  1.000  1.000  1.000  1.000  1.000  1.000  1.000  1.000  1.000


   alpha     31     32     33     34     35     36
    beta     31     32     33     34     35     36
 overlap   1.000  1.000  1.000  1.000  1.000  1.000

     --------------------------
     Expectation value of S2:  
     --------------------------
      <S2> =      0.0000 (Exact =     0.0000)


 center of mass
 --------------
 x =  30.98689620 y = -21.02320162 z =   0.00000000

 moments of inertia (a.u.)
 ------------------
           0.000000000000           0.000000000000           0.000000000000
           0.000000000000          91.781957163970           0.000000000000
           0.000000000000           0.000000000000          91.781957163970

     Multipole analysis of the density
     ---------------------------------

     L   x y z        total         alpha         beta         nuclear
     -   - - -        -----         -----         ----         -------
     0   0 0 0     -0.000000    -14.000000    -14.000000     28.000000

     1   1 0 0     -1.390736   -434.506913   -434.506913    867.623090
     1   0 1 0      0.000000    294.324823    294.324823   -588.649645
     1   0 0 1      0.000000      0.000000      0.000000      0.000000

     2   2 0 0   -109.840577 -13520.195461 -13520.195461  26930.550345
     2   1 1 0     29.237718   9134.726437   9134.726437 -18240.215156
     2   1 0 1      0.000000      0.000000      0.000000      0.000000
     2   0 2 0    -14.290933  -6194.795557  -6194.795557  12375.300181
     2   0 1 1     -0.000000     -0.000000     -0.000000      0.000000
     2   0 0 2    -14.290933     -7.145467     -7.145467      0.000000


            General Information
            -------------------
          SCF calculation type: DFT
          Wavefunction type:  spin polarized.
          No. of atoms     :     2
          No. of electrons :    28
           Alpha electrons :    14
            Beta electrons :    14
          Charge           :     0
          Spin multiplicity:     1
          Use of symmetry is: off; symmetry adaption is: off
          Maximum number of iterations: 500
          This is a Direct SCF calculation.
          AO basis - number of functions:    36
                     number of shells:    16
          Convergence on energy requested:  1.00D-06
          Convergence on density requested:  1.00D-05
          Convergence on gradient requested:  5.00D-04

              XC Information
              --------------
                         B3LYP Method XC Potential
                     Hartree-Fock (Exact) Exchange  0.200          
                        Slater Exchange Functional  0.800 local    
                    Becke 1988 Exchange Functional  0.720 non-local
              Lee-Yang-Parr Correlation Functional  0.810          
                  VWN I RPA Correlation Functional  0.190 local    

             Grid Information
             ----------------
          Grid used for XC integration:  medium    
          Radial quadrature: Mura-Knowles        
          Angular quadrature: Lebedev. 
          Tag              B.-S. Rad. Rad. Pts. Rad. Cut. Ang. Pts.
          ---              ---------- --------- --------- ---------
          Ca                  1.80      112          10.0       590
          O                   0.60       49           7.0       434
          Grid pruning is: on 
          Number of quadrature shells:   161
          Spatial weights used:  Erf1

          Convergence Information
          -----------------------
          Convergence aids based upon iterative change in 
          total energy or number of iterations. 
          Levelshifting, if invoked, occurs when the 
          HOMO/LUMO gap drops below (HL_TOL):  1.00D-02
          DIIS, if invoked, will attempt to extrapolate 
          using up to (NFOCK): 10 stored Fock matrices.

                    Damping( 0%)  Levelshifting(0.5)       DIIS
                  --------------- ------------------- ---------------
          dE  on:    start            ASAP                start   
          dE off:    2 iters        500 iters           500 iters 


      Screening Tolerance Information
      -------------------------------
          Density screening/tol_rho:  1.00D-10
          AO Gaussian exp screening on grid/accAOfunc:  14
          CD Gaussian exp screening on grid/accCDfunc:  20
          XC Gaussian exp screening on grid/accXCfunc:  20
          Schwarz screening/accCoul:  1.00D-08



                            NWChem DFT Gradient Module
                            --------------------------


                                       14778



  charge          =   0.00
  wavefunction    = open shell



                         DFT ENERGY GRADIENTS

    atom               coordinates                        gradient
                 x          y          z           x          y          z
   1 Ca     30.176656 -21.023202   0.000000    0.638542   0.000000   0.000000
   2 O      33.011245 -21.023202   0.000000   -0.638542  -0.000000  -0.000000

                 ----------------------------------------
                 |  Time  |  1-e(secs)   |  2-e(secs)   |
                 ----------------------------------------
                 |  CPU   |       0.00   |       1.19   |
                 ----------------------------------------
                 |  WALL  |       0.00   |       1.19   |
                 ----------------------------------------

@ Step       Energy      Delta E   Gmax     Grms     Xrms     Xmax   Walltime
@ ---- ---------------- -------- -------- -------- -------- -------- --------
@    0    -752.44800781  0.0D+00  0.63854  0.36866  0.00000  0.00000      5.2
                                                                    


                                 NWChem DFT Module
                                 -----------------


                                       14778




 Summary of "ao basis" -> "ao basis" (spherical)
 ------------------------------------------------------------------------------
       Tag                 Description            Shells   Functions and Types
 ---------------- ------------------------------  ------  ---------------------
 Ca                          6-31G*                 10       22   5s4p1d
 O                           6-31G*                  6       14   3s2p1d


  Caching 1-el integrals 

            General Information
            -------------------
          SCF calculation type: DFT
          Wavefunction type:  spin polarized.
          No. of atoms     :     2
          No. of electrons :    28
           Alpha electrons :    14
            Beta electrons :    14
          Charge           :     0
          Spin multiplicity:     1
          Use of symmetry is: off; symmetry adaption is: off
          Maximum number of iterations: 500
          This is a Direct SCF calculation.
          AO basis - number of functions:    36
                     number of shells:    16
          Convergence on energy requested:  1.00D-06
          Convergence on density requested:  1.00D-05
          Convergence on gradient requested:  5.00D-04

              XC Information
              --------------
                         B3LYP Method XC Potential
                     Hartree-Fock (Exact) Exchange  0.200          
                        Slater Exchange Functional  0.800 local    
                    Becke 1988 Exchange Functional  0.720 non-local
              Lee-Yang-Parr Correlation Functional  0.810          
                  VWN I RPA Correlation Functional  0.190 local    

             Grid Information
             ----------------
          Grid used for XC integration:  medium    
          Radial quadrature: Mura-Knowles        
          Angular quadrature: Lebedev. 
          Tag              B.-S. Rad. Rad. Pts. Rad. Cut. Ang. Pts.
          ---              ---------- --------- --------- ---------
          Ca                  1.80      112          10.0       590
          O                   0.60       49           7.0       434
          Grid pruning is: on 
          Number of quadrature shells:   161
          Spatial weights used:  Erf1

          Convergence Information
          -----------------------
          Convergence aids based upon iterative change in 
          total energy or number of iterations. 
          Levelshifting, if invoked, occurs when the 
          HOMO/LUMO gap drops below (HL_TOL):  1.00D-02
          DIIS, if invoked, will attempt to extrapolate 
          using up to (NFOCK): 10 stored Fock matrices.

                    Damping( 0%)  Levelshifting(0.5)       DIIS
                  --------------- ------------------- ---------------
          dE  on:    start            ASAP                start   
          dE off:    2 iters        500 iters           500 iters 


      Screening Tolerance Information
      -------------------------------
          Density screening/tol_rho:  1.00D-10
          AO Gaussian exp screening on grid/accAOfunc:  14
          CD Gaussian exp screening on grid/accCDfunc:  20
          XC Gaussian exp screening on grid/accXCfunc:  20
          Schwarz screening/accCoul:  1.00D-08


 Loading old vectors from job with title :

14778

   Time after variat. SCF:      5.2

     ---------------------------------------------
      Total Density - Mulliken Population Analysis
     ---------------------------------------------

    Atom       Charge   Shell Charges
 -----------   ------   -------------------------------------------------------
    1 Ca  20    19.21   2.00  2.00  6.00  2.01  5.98  0.28  0.33  0.03  0.11  0.47
    2 O    8     8.79   2.00  0.91  2.91  1.01  1.95  0.02

     --------------------------------------------
      Spin Density - Mulliken Population Analysis
     --------------------------------------------

    Atom       Charge   Shell Charges
 -----------   ------   -------------------------------------------------------
    1 Ca  20    -0.00   0.00  0.00  0.00  0.00  0.00 -0.00 -0.00 -0.00 -0.00  0.00
    2 O    8     0.00   0.00  0.00  0.00 -0.00  0.00 -0.00
   Time prior to 1st pass:      5.2

 Grid_pts file          = /home/ccardot3/nwchem/nwxpl/ScriptedCalculations/tests/Test/working/scratch/14778.gridpts.0
 Record size in doubles =  12289        No. of grid_pts per rec  =   3070
 Max. records in memory =     36        Max. recs in file   = *********


           Memory utilization after 1st SCF pass: 
           Heap Space remaining (MW):      147.08           147078906
          Stack Space remaining (MW):      245.76           245759564

   convergence    iter        energy       DeltaE   RMS-Dens  Diis-err    time
 ---------------- ----- ----------------- --------- --------- ---------  ------
 d= 0,ls=0.0,diis     1   -752.5787878680 -8.03D+02  8.12D-03  2.35D-02     5.5
                                                     8.12D-03  2.35D-02
 d= 0,ls=0.0,diis     2   -752.5243284932  5.45D-02  1.08D-02  1.42D-01     5.7
                                                     1.08D-02  1.42D-01
 d= 0,ls=0.0,diis     3   -752.5635475863 -3.92D-02  5.76D-03  5.07D-02     6.1
                                                     5.76D-03  5.07D-02
 d= 0,ls=0.0,diis     4   -752.5914908241 -2.79D-02  7.59D-04  2.93D-03     6.3
                                                     7.59D-04  2.93D-03
 d= 0,ls=0.0,diis     5   -752.5929325018 -1.44D-03  1.77D-04  1.25D-04     6.7
                                                     1.77D-04  1.25D-04
 d= 0,ls=0.0,diis     6   -752.5929943766 -6.19D-05  1.57D-05  3.57D-06     6.9
                                                     1.57D-05  3.57D-06
 d= 0,ls=0.0,diis     7   -752.5929956825 -1.31D-06  1.73D-05  6.49D-07     7.2
                                                     1.73D-05  6.49D-07
 d= 0,ls=0.0,diis     8   -752.5929960371 -3.55D-07  2.08D-06  7.01D-09     7.5
                                                     2.08D-06  7.01D-09


         Total DFT energy =     -752.592996037103
      One electron energy =    -1133.467042367112
           Coulomb energy =      375.067929337628
    Exchange-Corr. energy =      -44.841560917088
 Nuclear repulsion energy =       50.647677909469

 Numeric. integr. density =       27.999999793019

     Total iterative time =      2.2s



                    DFT Final Alpha Molecular Orbital Analysis
                    ------------------------------------------

 Vector    1  Occ=1.000000D+00  E=-1.453279D+02
              MO Center=  1.6D+01, -1.1D+01,  5.3D-15, r^2= 2.2D-03
   Bfn.  Coefficient  Atom+Function         Bfn.  Coefficient  Atom+Function  
  ----- ------------  ---------------      ----- ------------  ---------------
     1      0.996524  1 Ca s          

 Vector    2  Occ=1.000000D+00  E=-1.899792D+01
              MO Center=  1.8D+01, -1.1D+01,  4.3D-14, r^2= 1.5D-02
   Bfn.  Coefficient  Atom+Function         Bfn.  Coefficient  Atom+Function  
  ----- ------------  ---------------      ----- ------------  ---------------
    23      0.995063  2 O  s                 24      0.028108  2 O  s          

 Vector    3  Occ=1.000000D+00  E=-1.540570D+01
              MO Center=  1.6D+01, -1.1D+01,  5.9D-12, r^2= 4.4D-02
   Bfn.  Coefficient  Atom+Function         Bfn.  Coefficient  Atom+Function  
  ----- ------------  ---------------      ----- ------------  ---------------
     2      1.030838  1 Ca s                  1      0.290135  1 Ca s          

 Vector    4  Occ=1.000000D+00  E=-1.253628D+01
              MO Center=  1.6D+01, -1.1D+01, -1.8D-12, r^2= 3.7D-02
   Bfn.  Coefficient  Atom+Function         Bfn.  Coefficient  Atom+Function  
  ----- ------------  ---------------      ----- ------------  ---------------
     3      0.994990  1 Ca px         

 Vector    5  Occ=1.000000D+00  E=-1.253621D+01
              MO Center=  1.6D+01, -1.1D+01, -4.1D-12, r^2= 3.7D-02
   Bfn.  Coefficient  Atom+Function         Bfn.  Coefficient  Atom+Function  
  ----- ------------  ---------------      ----- ------------  ---------------
     5      0.803485  1 Ca pz                 4      0.587431  1 Ca py         

 Vector    6  Occ=1.000000D+00  E=-1.253621D+01
              MO Center=  1.6D+01, -1.1D+01,  3.8D-14, r^2= 3.7D-02
   Bfn.  Coefficient  Atom+Function         Bfn.  Coefficient  Atom+Function  
  ----- ------------  ---------------      ----- ------------  ---------------
     4      0.803485  1 Ca py                 5     -0.587431  1 Ca pz         

 Vector    7  Occ=1.000000D+00  E=-1.796750D+00
              MO Center=  1.6D+01, -1.1D+01,  1.4D-10, r^2= 4.5D-01
   Bfn.  Coefficient  Atom+Function         Bfn.  Coefficient  Atom+Function  
  ----- ------------  ---------------      ----- ------------  ---------------
     6      1.065694  1 Ca s                  2     -0.424609  1 Ca s          
     1     -0.100764  1 Ca s                  7      0.025789  1 Ca px         

 Vector    8  Occ=1.000000D+00  E=-1.110668D+00
              MO Center=  1.6D+01, -1.1D+01,  3.9D-11, r^2= 7.4D-01
   Bfn.  Coefficient  Atom+Function         Bfn.  Coefficient  Atom+Function  
  ----- ------------  ---------------      ----- ------------  ---------------
     7      0.946797  1 Ca px                 3     -0.311480  1 Ca px         
    24      0.152556  2 O  s                 28      0.129714  2 O  s          
    25     -0.084168  2 O  px                23     -0.072300  2 O  s          
     6      0.041955  1 Ca s                 29     -0.030428  2 O  px         

 Vector    9  Occ=1.000000D+00  E=-1.069391D+00
              MO Center=  1.6D+01, -1.1D+01, -1.6D-10, r^2= 5.4D-01
   Bfn.  Coefficient  Atom+Function         Bfn.  Coefficient  Atom+Function  
  ----- ------------  ---------------      ----- ------------  ---------------
     9      0.789138  1 Ca pz                 8      0.695254  1 Ca py         
     5     -0.256067  1 Ca pz                 4     -0.225602  1 Ca py         

 Vector   10  Occ=1.000000D+00  E=-1.069391D+00
              MO Center=  1.6D+01, -1.1D+01,  2.1D-11, r^2= 5.4D-01
   Bfn.  Coefficient  Atom+Function         Bfn.  Coefficient  Atom+Function  
  ----- ------------  ---------------      ----- ------------  ---------------
     8      0.789138  1 Ca py                 9     -0.695254  1 Ca pz         
     4     -0.256067  1 Ca py                 5      0.225602  1 Ca pz         

 Vector   11  Occ=1.000000D+00  E=-7.174380D-01
              MO Center=  1.7D+01, -1.1D+01,  1.0D-10, r^2= 8.4D-01
   Bfn.  Coefficient  Atom+Function         Bfn.  Coefficient  Atom+Function  
  ----- ------------  ---------------      ----- ------------  ---------------
    28      0.565969  2 O  s                 24      0.478029  2 O  s          
     7     -0.463716  1 Ca px                23     -0.221515  2 O  s          
     6      0.184484  1 Ca s                  3      0.140856  1 Ca px         
     2     -0.054963  1 Ca s                 29     -0.041119  2 O  px         
    22      0.039550  1 Ca d  2              10      0.034196  1 Ca s          

 Vector   12  Occ=1.000000D+00  E=-2.017701D-01
              MO Center=  1.7D+01, -1.1D+01, -1.1D-10, r^2= 9.8D-01
   Bfn.  Coefficient  Atom+Function         Bfn.  Coefficient  Atom+Function  
  ----- ------------  ---------------      ----- ------------  ---------------
    27     -0.429499  2 O  pz                26      0.402814  2 O  py         
    31     -0.314610  2 O  pz                30      0.295064  2 O  py         
    21      0.119850  1 Ca d  1              18      0.112403  1 Ca d -2       
    13     -0.105259  1 Ca pz                12      0.098719  1 Ca py         
     9      0.066124  1 Ca pz                 8     -0.062015  1 Ca py         

 Vector   13  Occ=1.000000D+00  E=-2.017701D-01
              MO Center=  1.7D+01, -1.1D+01, -1.3D-09, r^2= 9.8D-01
   Bfn.  Coefficient  Atom+Function         Bfn.  Coefficient  Atom+Function  
  ----- ------------  ---------------      ----- ------------  ---------------
    26      0.429499  2 O  py                27      0.402814  2 O  pz         
    30      0.314610  2 O  py                31      0.295064  2 O  pz         
    18      0.119850  1 Ca d -2              21     -0.112403  1 Ca d  1       
[...]
    11      0.264598  1 Ca px                 6     -0.176285  1 Ca s          

 Vector   31  Occ=0.000000D+00  E= 1.533394D+00
              MO Center=  1.7D+01, -1.1D+01, -2.6D-11, r^2= 2.2D+00
   Bfn.  Coefficient  Atom+Function         Bfn.  Coefficient  Atom+Function  
  ----- ------------  ---------------      ----- ------------  ---------------
    28      2.442558  2 O  s                 24     -1.632336  2 O  s          
    11     -1.071781  1 Ca px                10     -0.899220  1 Ca s          
    29     -0.900161  2 O  px                 7     -0.608814  1 Ca px         
    22     -0.548278  1 Ca d  2              15      0.353407  1 Ca px         
    25      0.327841  2 O  px                20      0.316549  1 Ca d  0       

 Vector   32  Occ=0.000000D+00  E= 1.943142D+00
              MO Center=  1.8D+01, -1.1D+01, -4.9D-11, r^2= 9.0D-01
   Bfn.  Coefficient  Atom+Function         Bfn.  Coefficient  Atom+Function  
  ----- ------------  ---------------      ----- ------------  ---------------
    36      0.877007  2 O  d  2              28      0.664467  2 O  s          
    34     -0.506340  2 O  d  0              24     -0.367749  2 O  s          
    11     -0.356392  1 Ca px                10     -0.341148  1 Ca s          
    29     -0.336855  2 O  px                 7     -0.293723  1 Ca px         
    22     -0.263967  1 Ca d  2              15      0.154058  1 Ca px         

 Vector   33  Occ=0.000000D+00  E= 1.944394D+00
              MO Center=  1.8D+01, -1.1D+01,  2.8D-12, r^2= 6.3D-01
   Bfn.  Coefficient  Atom+Function         Bfn.  Coefficient  Atom+Function  
  ----- ------------  ---------------      ----- ------------  ---------------
    34      0.866799  2 O  d  0              36      0.500447  2 O  d  2       
    20     -0.043401  1 Ca d  0              22     -0.025058  1 Ca d  2       

 Vector   34  Occ=0.000000D+00  E= 1.944394D+00
              MO Center=  1.8D+01, -1.1D+01,  1.8D-11, r^2= 6.3D-01
   Bfn.  Coefficient  Atom+Function         Bfn.  Coefficient  Atom+Function  
  ----- ------------  ---------------      ----- ------------  ---------------
    33      1.000894  2 O  d -1              19     -0.050115  1 Ca d -1       

 Vector   35  Occ=0.000000D+00  E= 1.969067D+00
              MO Center=  1.8D+01, -1.1D+01, -4.8D-11, r^2= 7.9D-01
   Bfn.  Coefficient  Atom+Function         Bfn.  Coefficient  Atom+Function  
  ----- ------------  ---------------      ----- ------------  ---------------
    35     -0.721409  2 O  d  1              32      0.717675  2 O  d -2       
    21     -0.149333  1 Ca d  1              18      0.148560  1 Ca d -2       
    31     -0.102105  2 O  pz                30     -0.101577  2 O  py         
    13      0.098419  1 Ca pz                12      0.097910  1 Ca py         
    27      0.052873  2 O  pz                26      0.052599  2 O  py         

 Vector   36  Occ=0.000000D+00  E= 1.969067D+00
              MO Center=  1.8D+01, -1.1D+01, -2.2D-11, r^2= 7.9D-01
   Bfn.  Coefficient  Atom+Function         Bfn.  Coefficient  Atom+Function  
  ----- ------------  ---------------      ----- ------------  ---------------
    32      0.721409  2 O  d -2              35      0.717675  2 O  d  1       
    18      0.149333  1 Ca d -2              21      0.148560  1 Ca d  1       
    30     -0.102105  2 O  py                31      0.101577  2 O  pz         
    12      0.098419  1 Ca py                13     -0.097910  1 Ca pz         
    26      0.052873  2 O  py                27     -0.052599  2 O  pz         


     ---------------------------------------------
      Total Density - Mulliken Population Analysis
     ---------------------------------------------

    Atom       Charge   Shell Charges
 -----------   ------   -------------------------------------------------------
    1 Ca  20    19.30   2.00  2.00  6.00  2.00  5.99  0.63  0.27  0.02  0.16  0.23
    2 O    8     8.70   2.00  0.93  2.72  1.03  2.02  0.00

     --------------------------------------------
      Spin Density - Mulliken Population Analysis
     --------------------------------------------

    Atom       Charge   Shell Charges
 -----------   ------   -------------------------------------------------------
    1 Ca  20    -0.00  -0.00 -0.00  0.00 -0.00  0.00 -0.00 -0.00 -0.00 -0.00  0.00
    2 O    8     0.00  -0.00  0.00  0.00  0.00  0.00  0.00

     -------------------------------------------
      Total Density - Lowdin Population Analysis
     -------------------------------------------

    Atom       Charge   Shell Charges
 -----------   ------   -------------------------------------------------------
    1 Ca  20    19.42   2.00  2.00  5.98  1.96  5.86  0.50  0.39  0.19  0.23  0.31
    2 O    8     8.58   2.00  0.93  2.63  0.87  2.16  0.01

     ------------------------------------------
      Spin Density - Lowdin Population Analysis
     ------------------------------------------

    Atom       Charge   Shell Charges
 -----------   ------   -------------------------------------------------------
    1 Ca  20    -0.00  -0.00 -0.00  0.00 -0.00  0.00 -0.00 -0.00 -0.00 -0.00  0.00
    2 O    8     0.00   0.00  0.00  0.00  0.00  0.00 -0.00

   alpha - beta orbital overlaps 
   ----------------------------- 


   alpha      1      2      3      4      5      6      7      8      9     10
    beta      1      2      3      4      5      6      7      8      9     10
 overlap   1.000  1.000  1.000  1.000  1.000  1.000  1.000  1.000  1.000  1.000


   alpha     11     12     13     14     15     16     17     18     19     20
    beta     11     12     13     14     15     16     17     18     19     20
 overlap   1.000  1.000  1.000  1.000  1.000  1.000  1.000  1.000  1.000  1.000


   alpha     21     22     23     24     25     26     27     28     29     30
    beta     21     22     23     24     25     26     27     28     29     30
 overlap   1.000  1.000  1.000  1.000  1.000  1.000  1.000  1.000  1.000  1.000


   alpha     31     32     33     34     35     36
    beta     31     32     33     34     35     36
 overlap   1.000  1.000  1.000  1.000  1.000  1.000

     --------------------------
     Expectation value of S2:  
     --------------------------
      <S2> =      0.0000 (Exact =     0.0000)


 center of mass
 --------------
 x =  30.76991712 y = -21.02320162 z =   0.00000000

 moments of inertia (a.u.)
 ------------------
           0.000000000000           0.000000000000           0.000000000000
           0.000000000000         169.118732556078           0.000000000000
           0.000000000000           0.000000000000         169.118732556078

     Multipole analysis of the density
     ---------------------------------

     L   x y z        total         alpha         beta         nuclear
     -   - - -        -----         -----         ----         -------
     0   0 0 0     -0.000000    -14.000000    -14.000000     28.000000

     1   1 0 0     -2.705609   -432.125392   -432.124318    861.544100
     1   0 1 0      0.000000    294.324823    294.324823   -588.649645
     1   0 0 1      0.000000      0.000000      0.000000      0.000000

     2   2 0 0   -189.081798 -13391.485605 -13391.420132  26593.823938
     2   1 1 0     56.880565   9084.659236   9084.636654 -18112.415325
     2   1 0 1      0.000000      0.000000      0.000000      0.000000
     2   0 2 0    -16.218077  -6195.758619  -6195.759640  12375.300181
     2   0 1 1     -0.000000     -0.000000     -0.000000     -0.000000
     2   0 0 2    -16.218077     -8.108528     -8.109549      0.000000

 Line search: 
     step= 1.00 grad=-1.5D-09 hess=-6.3D-09 energy=   -752.668747 mode=accept  
 new step= 1.00                   predicted energy=   -752.668747

          --------
          Step   5
          --------


                         Geometry "geometry" -> "geometry"
                         ---------------------------------

 Output coordinates in angstroms (scale by  1.889725989 to convert to a.u.)

  No.       Tag          Charge          X              Y              Z
 ---- ---------------- ---------- -------------- -------------- --------------
    1 Ca                  20.0000    15.70072807   -11.12500000     0.00000000
    2 O                    8.0000    17.73687193   -11.12500000    -0.00000000

      Atomic Mass 
      ----------- 

      Ca                39.962590
      O                 15.994910


 Effective nuclear repulsion energy (a.u.)      41.5827002295

            Nuclear Dipole moment (a.u.) 
            ----------------------------
        X                 Y               Z
 ---------------- ---------------- ----------------
   861.5441001847  -588.6496454427     0.0000000000


                                 NWChem DFT Module
                                 -----------------


                                       14778




 Summary of "ao basis" -> "ao basis" (spherical)
 ------------------------------------------------------------------------------
       Tag                 Description            Shells   Functions and Types
 ---------------- ------------------------------  ------  ---------------------
 Ca                          6-31G*                 10       22   5s4p1d
 O                           6-31G*                  6       14   3s2p1d



  The DFT is already converged 

         Total DFT energy =   -752.668746852691


            General Information
            -------------------
          SCF calculation type: DFT
          Wavefunction type:  spin polarized.
          No. of atoms     :     2
          No. of electrons :    28
           Alpha electrons :    14
            Beta electrons :    14
          Charge           :     0
          Spin multiplicity:     1
          Use of symmetry is: off; symmetry adaption is: off
          Maximum number of iterations: 500
          This is a Direct SCF calculation.
          AO basis - number of functions:    36
                     number of shells:    16
          Convergence on energy requested:  1.00D-06
          Convergence on density requested:  1.00D-05
          Convergence on gradient requested:  5.00D-04

              XC Information
              --------------
                         B3LYP Method XC Potential
                     Hartree-Fock (Exact) Exchange  0.200          
                        Slater Exchange Functional  0.800 local    
                    Becke 1988 Exchange Functional  0.720 non-local
              Lee-Yang-Parr Correlation Functional  0.810          
                  VWN I RPA Correlation Functional  0.190 local    

             Grid Information
             ----------------
          Grid used for XC integration:  medium    
          Radial quadrature: Mura-Knowles        
          Angular quadrature: Lebedev. 
          Tag              B.-S. Rad. Rad. Pts. Rad. Cut. Ang. Pts.
          ---              ---------- --------- --------- ---------
          Ca                  1.80      112          10.0       590
          O                   0.60       49           8.0       434
          Grid pruning is: on 
          Number of quadrature shells:   161
          Spatial weights used:  Erf1

          Convergence Information
          -----------------------
          Convergence aids based upon iterative change in 
          total energy or number of iterations. 
          Levelshifting, if invoked, occurs when the 
          HOMO/LUMO gap drops below (HL_TOL):  1.00D-02
          DIIS, if invoked, will attempt to extrapolate 
          using up to (NFOCK): 10 stored Fock matrices.

                    Damping( 0%)  Levelshifting(0.5)       DIIS
                  --------------- ------------------- ---------------
          dE  on:    start            ASAP                start   
          dE off:    2 iters        500 iters           500 iters 


      Screening Tolerance Information
      -------------------------------
          Density screening/tol_rho:  1.00D-10
          AO Gaussian exp screening on grid/accAOfunc:  14
          CD Gaussian exp screening on grid/accCDfunc:  20
          XC Gaussian exp screening on grid/accXCfunc:  20
          Schwarz screening/accCoul:  1.00D-08



                            NWChem DFT Gradient Module
                            --------------------------


                                       14778



  charge          =   0.00
  wavefunction    = open shell



                         DFT ENERGY GRADIENTS

    atom               coordinates                        gradient
                 x          y          z           x          y          z
   1 Ca     29.670074 -21.023202   0.000000   -0.000000  -0.000000  -0.000000
   2 O      33.517828 -21.023202  -0.000000    0.000000   0.000000   0.000000

                 ----------------------------------------
                 |  Time  |  1-e(secs)   |  2-e(secs)   |
                 ----------------------------------------
                 |  CPU   |       0.00   |       1.00   |
                 ----------------------------------------
                 |  WALL  |       0.00   |       1.01   |
                 ----------------------------------------

  Step       Energy      Delta E   Gmax     Grms     Xrms     Xmax   Walltime
  ---- ---------------- -------- -------- -------- -------- -------- --------
@    5    -752.66874685 -7.8D-09  0.00000  0.00000  0.00003  0.00005     24.6
                                     ok       ok       ok       ok  


      ----------------------
      Optimization converged
      ----------------------


  Step       Energy      Delta E   Gmax     Grms     Xrms     Xmax   Walltime
  ---- ---------------- -------- -------- -------- -------- -------- --------
@    5    -752.66874685 -7.8D-09  0.00000  0.00000  0.00003  0.00005     24.6
                                     ok       ok       ok       ok  



                         Geometry "geometry" -> "geometry"
                         ---------------------------------

 Output coordinates in angstroms (scale by  1.889725989 to convert to a.u.)

  No.       Tag          Charge          X              Y              Z
 ---- ---------------- ---------- -------------- -------------- --------------
    1 Ca                  20.0000    15.70072807   -11.12500000     0.00000000
    2 O                    8.0000    17.73687193   -11.12500000    -0.00000000

      Atomic Mass 
      ----------- 

      Ca                39.962590
      O                 15.994910


 Effective nuclear repulsion energy (a.u.)      41.5827002295

            Nuclear Dipole moment (a.u.) 
            ----------------------------
        X                 Y               Z
 ---------------- ---------------- ----------------
   861.5441001847  -588.6496454427     0.0000000000

 ==============================================================================
                                internuclear distances
 ------------------------------------------------------------------------------
       center one      |      center two      | atomic units |  angstroms
 ------------------------------------------------------------------------------
    2 O                |   1 Ca               |     3.84775  |     2.03614
 ------------------------------------------------------------------------------
                         number of included internuclear distances:          1
 ==============================================================================




 Task  times  cpu:       24.4s     wall:       24.6s


                                NWChem Input Module
                                -------------------


 Summary of allocated global arrays
-----------------------------------
  No active global arrays


MA_summarize_allocated_blocks: starting scan ...
MA_summarize_allocated_blocks: scan completed: 0 heap blocks, 0 stack blocks
MA usage statistics:

	allocation statistics:
					      heap	     stack
					      ----	     -----
	current number of blocks	         0	         0
	maximum number of blocks	        25	        58
	current total bytes		         0	         0
	maximum total bytes		 789450752	  22512216
	maximum total K-bytes		    789451	     22513
	maximum total M-bytes		       790	        23


                                     CITATION
                                     --------
                Please cite the following reference when publishing
                           results obtained with NWChem:

          E. Apra, E. J. Bylaska, W. A. de Jong, N. Govind, K. Kowalski,
       T. P. Straatsma, M. Valiev, H. J. J. van Dam, Y. Alexeev, J. Anchell,
       V. Anisimov, F. W. Aquino, R. Atta-Fynn, J. Autschbach, N. P. Bauman,
     J. C. Becca, D. E. Bernholdt, K. Bhaskaran-Nair, S. Bogatko, P. Borowski,
         J. Boschen, J. Brabec, A. Bruner, E. Cauet, Y. Chen, G. N. Chuev,
      C. J. Cramer, J. Daily, M. J. O. Deegan, T. H. Dunning Jr., M. Dupuis,
   K. G. Dyall, G. I. Fann, S. A. Fischer, A. Fonari, H. Fruchtl, L. Gagliardi,
      J. Garza, N. Gawande, S. Ghosh, K. Glaesemann, A. W. Gotz, J. Hammond,
       V. Helms, E. D. Hermes, K. Hirao, S. Hirata, M. Jacquelin, L. Jensen,
   B. G. Johnson, H. Jonsson, R. A. Kendall, M. Klemm, R. Kobayashi, V. Konkov,
      S. Krishnamoorthy, M. Krishnan, Z. Lin, R. D. Lins, R. J. Littlefield,
      A. J. Logsdail, K. Lopata, W. Ma, A. V. Marenich, J. Martin del Campo,
   D. Mejia-Rodriguez, J. E. Moore, J. M. Mullin, T. Nakajima, D. R. Nascimento,
    J. A. Nichols, P. J. Nichols, J. Nieplocha, A. Otero-de-la-Roza, B. Palmer,
    A. Panyala, T. Pirojsirikul, B. Peng, R. Peverati, J. Pittner, L. Pollack,
   R. M. Richard, P. Sadayappan, G. C. Schatz, W. A. Shelton, D. W. Silverstein,
   D. M. A. Smith, T. A. Soares, D. Song, M. Swart, H. L. Taylor, G. S. Thomas,
            V. Tipparaju, D. G. Truhlar, K. Tsemekhman, T. Van Voorhis,
      A. Vazquez-Mayagoitia, P. Verma, O. Villa, A. Vishnu, K. D. Vogiatzis,
        D. Wang, J. H. Weare, M. J. Williamson, T. L. Windus, K. Wolinski,
        A. T. Wong, Q. Wu, C. Yang, Q. Yu, M. Zacharias, Z. Zhang, Y. Zhao,
                                and R. J. Harrison
                        "NWChem: Past, present, and future
                         J. Chem. Phys. 152, 184102 (2020)
                               doi:10.1063/5.0004997

                                      AUTHORS
                                      -------
  E. Apra, E. J. Bylaska, N. Govind, K. Kowalski, M. Valiev, D. Mejia-Rodriguez,
       A. Kunitsa, N. P. Bauman, A. Panyala, W. A. de Jong, T. P. Straatsma,
   H. J. J. van Dam, D. Wang, T. L. Windus, J. Hammond, J. Autschbach, A. Woods,
    K. Bhaskaran-Nair, J. Brabec, K. Lopata, S. A. Fischer, S. Krishnamoorthy,
     M. Jacquelin, W. Ma, M. Klemm, O. Villa, Y. Chen, V. Anisimov, F. Aquino,
     S. Hirata, M. T. Hackler, E. Hermes, L. Jensen, J. E. Moore, J. C. Becca,
      V. Konjkov, T. Risthaus, M. Malagoli, A. Marenich, A. Otero-de-la-Roza,
        J. Mullin, P. Nichols, R. Peverati, J. Pittner, Y. Zhao, P.-D. Fan,
        A. Fonari, M. J. Williamson, R. J. Harrison, J. R. Rehr, M. Dupuis,
     D. Silverstein, D. M. A. Smith, J. Nieplocha, V. Tipparaju, M. Krishnan,
     B. E. Van Kuiken, A. Vazquez-Mayagoitia, M. Swart, Q. Wu, T. Van Voorhis,
     A. A. Auer, M. Nooijen, L. D. Crosby, E. Brown, G. Cisneros, G. I. Fann,
   H. Fruchtl, J. Garza, K. Hirao, R. A. Kendall, J. A. Nichols, K. Tsemekhman,
    K. Wolinski, J. Anchell, D. E. Bernholdt, P. Borowski, T. Clark, D. Clerc,
   H. Dachsel, M. J. O. Deegan, K. Dyall, D. Elwood, E. Glendening, M. Gutowski,
   A. C. Hess, J. Jaffe, B. G. Johnson, J. Ju, R. Kobayashi, R. Kutteh, Z. Lin,
   R. Littlefield, X. Long, B. Meng, T. Nakajima, S. Niu, L. Pollack, M. Rosing,
   K. Glaesemann, G. Sandrone, M. Stave, H. Taylor, G. Thomas, J. H. van Lenthe,
                               A. T. Wong, Z. Zhang.

 Total times  cpu:       24.5s     wall:       24.6s
